/*--------------------------------*- C++ -*----------------------------------*\
| =========                 |                                                 |
| \\      /  F ield         | foam-extend: Open Source CFD                    |
|  \\    /   O peration     | Version:     4.1                                |
|   \\  /    A nd           | Web:         http://www.foam-extend.org         |
|    \\/     M anipulation  |                                                 |
\*---------------------------------------------------------------------------*/
FoamFile
{
    version     2.0;
    format      ascii;
    class       volVectorField;
    location    "51";
    object      U;
}
// * * * * * * * * * * * * * * * * * * * * * * * * * * * * * * * * * * * * * //

dimensions      [0 1 -1 0 0 0 0];

internalField   nonuniform List<vector> 
1024
(
(0.0686481126407 -0.0617305808921 0)
(0.183536760228 -0.0543606895282 0)
(0.284745993259 -0.0478444562555 0)
(0.373539134161 -0.0420010101584 0)
(0.451356692749 -0.0368238098924 0)
(0.519530122644 -0.0322662304679 0)
(0.579238644563 -0.0282636983944 0)
(0.631523665457 -0.0247531939635 0)
(0.677304331292 -0.0216767962461 0)
(0.71738908304 -0.0189820164717 0)
(0.752486877131 -0.0166219718652 0)
(0.783218612393 -0.0145552399496 0)
(0.810127871151 -0.0127454168336 0)
(0.833690500962 -0.0111605777001 0)
(0.854323038076 -0.00977275261487 0)
(0.87239010269 -0.00855744858726 0)
(0.888210884842 -0.00749322160498 0)
(0.90206482293 -0.00656129743858 0)
(0.914196570034 -0.00574523826332 0)
(0.92482033642 -0.0050306507933 0)
(0.934123687066 -0.00440493114801 0)
(0.942270863692 -0.00385704196688 0)
(0.949405690687 -0.00337731758524 0)
(0.955654121379 -0.00295729429559 0)
(0.961126458412 -0.00258956091998 0)
(0.965919332835 -0.00226763333266 0)
(0.970117327095 -0.00198583117052 0)
(0.973794805245 -0.00173922239725 0)
(0.977016141263 -0.00152342516366 0)
(0.979840980309 -0.00133495316545 0)
(0.982311246457 -0.00117008435305 0)
(0.984509620535 -0.00102871437745 0)
(0.10576538474 -0.183513009257 0)
(0.215989467374 -0.161224214916 0)
(0.31324472908 -0.14160134444 0)
(0.398441475565 -0.124198781383 0)
(0.472992789715 -0.1088530644 0)
(0.538272193384 -0.0953681772715 0)
(0.595443551565 -0.0835356620592 0)
(0.645509608169 -0.0731619948676 0)
(0.689351345488 -0.0640727038108 0)
(0.72774345785 -0.0561114794123 0)
(0.761364993968 -0.0491394371981 0)
(0.790810361061 -0.0430340692297 0)
(0.816599791199 -0.0376877458129 0)
(0.839188586723 -0.0330060828326 0)
(0.858975195446 -0.0289063894151 0)
(0.876308301312 -0.0253162580416 0)
(0.891493054656 -0.0221723026213 0)
(0.904796532394 -0.0194190391695 0)
(0.916452514028 -0.0170079000033 0)
(0.926665656426 -0.0148963692959 0)
(0.935615142499 -0.0130472266436 0)
(0.943457870887 -0.011427885915 0)
(0.950331242748 -0.0100098174717 0)
(0.956355605046 -0.00876804460802 0)
(0.961636367634 -0.00768070188341 0)
(0.966265930249 -0.00672865998737 0)
(0.970325124028 -0.00589517336619 0)
(0.973885338814 -0.0051656734499 0)
(0.977007458745 -0.00452731880403 0)
(0.97975110535 -0.00396954325139 0)
(0.98214821593 -0.00348201266913 0)
(0.984301722558 -0.00306109817248 0)
(0.175674803281 -0.298810011831 0)
(0.277234593159 -0.262113362569 0)
(0.366971328627 -0.229829398828 0)
(0.445533813998 -0.20142321491 0)
(0.514205799527 -0.176472035803 0)
(0.574299964424 -0.154583231216 0)
(0.626914165706 -0.135393910796 0)
(0.672980332169 -0.118578931937 0)
(0.713313693953 -0.103849615208 0)
(0.748630209957 -0.0909500843924 0)
(0.779556597812 -0.0796542954169 0)
(0.806640864749 -0.0697633127701 0)
(0.830362358188 -0.0611024970983 0)
(0.851140473353 -0.053518745527 0)
(0.869342147731 -0.0468779407798 0)
(0.885288411453 -0.0410626550134 0)
(0.899260139767 -0.0359701026322 0)
(0.911503094325 -0.0315103264285 0)
(0.922232332933 -0.0276045991318 0)
(0.93163606511 -0.024184020161 0)
(0.939879022753 -0.0211882865212 0)
(0.94710540761 -0.0185646177665 0)
(0.953441465704 -0.0162668164387 0)
(0.958997746411 -0.014254448403 0)
(0.963871050379 -0.0124921264723 0)
(0.968146229064 -0.0109488931644 0)
(0.971897436304 -0.00959766923984 0)
(0.975190319383 -0.00841483606828 0)
(0.97808023768 -0.00737973448576 0)
(0.980623143726 -0.00647471320173 0)
(0.982843785684 -0.00568400226644 0)
(0.984848796163 -0.00499629286255 0)
(0.277065301576 -0.402353762717 0)
(0.366025546142 -0.352842405932 0)
(0.444676223025 -0.309224257246 0)
(0.51353793325 -0.270911879137 0)
(0.573722190763 -0.237304155026 0)
(0.626384246952 -0.207843485619 0)
(0.672489873397 -0.182028782341 0)
(0.712855744738 -0.159415547255 0)
(0.748196309983 -0.139611142889 0)
(0.779139565777 -0.12226917219 0)
(0.806235187282 -0.107084607061 0)
(0.829963635301 -0.0937894456511 0)
(0.850745125497 -0.0821485998015 0)
(0.868947351019 -0.0719560481978 0)
(0.884892055534 -0.0630313469032 0)
(0.898860757058 -0.0552165159149 0)
(0.911099775489 -0.0483732776968 0)
(0.921824640362 -0.0423806168976 0)
(0.931223947475 -0.037132631681 0)
(0.939462732821 -0.0325366472893 0)
(0.946685424679 -0.0285115630031 0)
(0.953018427576 -0.0249864054394 0)
(0.958572380431 -0.0218990636354 0)
(0.963444141001 -0.0191951841058 0)
(0.967718491234 -0.0168272067572 0)
(0.971469731716 -0.014753524602 0)
(0.974762728086 -0.0129377569491 0)
(0.977654982445 -0.0113481074379 0)
(0.980194575142 -0.00995687385585 0)
(0.982431182264 -0.00873979807349 0)
(0.984383759781 -0.00767633241291 0)
(0.986153553738 -0.00674729491471 0)
(0.406273278166 -0.490203853372 0)
(0.479215811782 -0.429839579555 0)
(0.543740101331 -0.376663892374 0)
(0.600220493454 -0.329964608715 0)
(0.649583323097 -0.289013256587 0)
(0.692785640445 -0.253124419244 0)
(0.730618329123 -0.221682241994 0)
(0.763746893655 -0.194142105804 0)
(0.792754671118 -0.170024031827 0)
(0.818155655281 -0.148905277119 0)
(0.840400062606 -0.130414012611 0)
(0.859881446839 -0.114223762503 0)
(0.876944107902 -0.10004824219 0)
(0.891889458483 -0.0876365951885 0)
(0.90498137747 -0.0767691059139 0)
(0.916450856275 -0.0672533942506 0)
(0.92650008653 -0.058921052177 0)
(0.935306048406 -0.0516246772725 0)
(0.943023651769 -0.0452352626326 0)
(0.949788485924 -0.0396399054709 0)
(0.955719227995 -0.0347397986374 0)
(0.960919753656 -0.0304484718707 0)
(0.965480983447 -0.0266902531718 0)
(0.969482508368 -0.0233989229774 0)
(0.97299398342 -0.0205165404505 0)
(0.976076445582 -0.01799241205 0)
(0.978783135305 -0.0157822159621 0)
(0.98116130573 -0.0138471598799 0)
(0.983250188693 -0.0121535101306 0)
(0.985091104684 -0.0106713286582 0)
(0.986697745781 -0.00937600729501 0)
(0.988159054728 -0.00824192304124 0)
(0.558355288061 -0.559118857337 0)
(0.612471326751 -0.490192744201 0)
(0.660436403929 -0.429541485539 0)
(0.70238705276 -0.376283819607 0)
(0.739030961325 -0.329585647752 0)
(0.771107918096 -0.288665020372 0)
(0.799209394276 -0.252816304655 0)
(0.823824559122 -0.221416181624 0)
(0.84538312381 -0.193916666525 0)
(0.86426538449 -0.169835795308 0)
(0.880804772002 -0.148749867907 0)
(0.895292652861 -0.130286937855 0)
(0.907983958152 -0.114120877698 0)
(0.919101998756 -0.0999659168903 0)
(0.928842412694 -0.0875717337005 0)
(0.937376563953 -0.0767191123019 0)
(0.944854540776 -0.0672161147658 0)
(0.951407793137 -0.0588947096076 0)
(0.957151441709 -0.0516078068741 0)
(0.962186299129 -0.0452266553553 0)
(0.966600641499 -0.0396385607285 0)
(0.970471762698 -0.0347448865859 0)
(0.973867335214 -0.030459304788 0)
(0.97684661071 -0.0267062633458 0)
(0.979461446642 -0.023419650371 0)
(0.981757289992 -0.0205416132379 0)
(0.98377375566 -0.0180215682891 0)
(0.985546060444 -0.0158151994756 0)
(0.987103222349 -0.0138840125405 0)
(0.988476492671 -0.0121935932859 0)
(0.989674450061 -0.0107161581092 0)
(0.990768630474 -0.0094211952133 0)
(0.727458847731 -0.606518019244 0)
(0.760643592862 -0.531642510233 0)
(0.790256061815 -0.465854438329 0)
(0.816113771666 -0.408102942184 0)
(0.838653822723 -0.357466232464 0)
(0.858381706271 -0.313097207473 0)
(0.875675466629 -0.274228830058 0)
(0.890831450725 -0.240182759645 0)
(0.904110033718 -0.210363976458 0)
(0.915744161602 -0.184250120262 0)
(0.92593854657 -0.161382254312 0)
(0.93487175652 -0.141357527995 0)
(0.942699900445 -0.123822721052 0)
(0.949559800925 -0.10846831904 0)
(0.955571433642 -0.0950231776536 0)
(0.960839972705 -0.0832498082849 0)
(0.965457604062 -0.072940233616 0)
(0.969505129144 -0.0639123432432 0)
(0.973053368149 -0.0560066903468 0)
(0.976164386656 -0.0490836797969 0)
(0.978892570554 -0.0430211028105 0)
(0.981285570073 -0.0377119767313 0)
(0.983385126953 -0.0330626536724 0)
(0.985227805919 -0.0289911629472 0)
(0.986845617678 -0.0254257658429 0)
(0.988266627566 -0.0223036730458 0)
(0.989515280247 -0.0195699790469 0)
(0.990613370789 -0.0171765480879 0)
(0.991578637471 -0.0150816022754 0)
(0.992430928673 -0.0132476229609 0)
(0.993173772183 -0.0116446792945 0)
(0.993857483446 -0.0102388907592 0)
(0.907071414795 -0.630613594507 0)
(0.918018107115 -0.552644632591 0)
(0.928172523184 -0.484243422669 0)
(0.936993587983 -0.424223973601 0)
(0.94459646959 -0.37159997603 0)
(0.951234645818 -0.325491138135 0)
(0.957066235181 -0.285100212145 0)
(0.962186411608 -0.249719905365 0)
(0.966676842713 -0.218730559542 0)
(0.97061490773 -0.19158937917 0)
(0.974069686665 -0.16781991944 0)
(0.977100880492 -0.147003997179 0)
(0.979760334998 -0.128774934837 0)
(0.982093523118 -0.112811425915 0)
(0.984140437445 -0.0988319838919 0)
(0.985936224102 -0.0865900330432 0)
(0.987511754564 -0.0758696035597 0)
(0.988894148424 -0.0664815534899 0)
(0.990107231331 -0.0582602499659 0)
(0.991171931857 -0.0510606561026 0)
(0.992106628305 -0.0447557768411 0)
(0.992927454079 -0.0392344206541 0)
(0.99364856595 -0.0343992395405 0)
(0.99428238298 -0.0301650102909 0)
(0.994839787065 -0.0264571364028 0)
(0.995330332512 -0.023210314404 0)
(0.99576231642 -0.0203674348964 0)
(0.996143222505 -0.017878403476 0)
(0.996478838906 -0.0156997737238 0)
(0.996776704426 -0.0137924020428 0)
(0.997035440475 -0.0121253485318 0)
(0.997281296298 -0.0106628661644 0)
(1.09027344491 -0.630496206318 0)
(1.07853438193 -0.552426263131 0)
(1.06885719977 -0.484032045159 0)
(1.06034297541 -0.424050037467 0)
(1.05274904964 -0.371460642648 0)
(1.04606164231 -0.325382271575 0)
(1.04021883471 -0.285019625278 0)
(1.03511453825 -0.249664167737 0)
(1.03064915477 -0.218695026701 0)
(1.0267417866 -0.191569527208 0)
(1.02332388173 -0.167811954272 0)
(1.02033467032 -0.147004844332 0)
(1.01772026217 -0.128782120418 0)
(1.01543341291 -0.11282299893 0)
(1.01343289331 -0.0988464492548 0)
(1.0116827073 -0.0866062761361 0)
(1.01015140509 -0.0758868151647 0)
(1.00881151174 -0.0664991641108 0)
(1.00763903102 -0.058277875257 0)
(1.00661300562 -0.0510780520527 0)
(1.00571512932 -0.0447728033047 0)
(1.00492940782 -0.0392510120166 0)
(1.00424186302 -0.0344153814967 0)
(1.00364027421 -0.0301807212053 0)
(1.00311395327 -0.026472453311 0)
(1.00265354669 -0.0232252796095 0)
(1.00225086052 -0.0203820916041 0)
(1.0018987346 -0.0178927745162 0)
(1.00159079286 -0.0157138953624 0)
(1.00132183043 -0.0138062193508 0)
(1.00108587222 -0.0121389845559 0)
(1.00088318002 -0.0106760699021 0)
(1.27000658448 -0.606177060448 0)
(1.23601322149 -0.531017133685 0)
(1.20688364798 -0.465250537492 0)
(1.18138996033 -0.407605076423 0)
(1.15891849224 -0.35706697427 0)
(1.13917990376 -0.312785031262 0)
(1.12189794486 -0.273997222099 0)
(1.10677299064 -0.240021821177 0)
(1.09352879831 -0.210260507857 0)
(1.08192927612 -0.184191261442 0)
(1.07177120484 -0.16135720362 0)
(1.06287619315 -0.141357542706 0)
(1.05508710186 -0.123840784033 0)
(1.04826607833 -0.108498910452 0)
(1.042292484 -0.0950620790171 0)
(1.03706075314 -0.0832938848734 0)
(1.03247847643 -0.0729872181895 0)
(1.02846475919 -0.0639606467195 0)
(1.02494879554 -0.0560552447742 0)
(1.02186861401 -0.0491318098876 0)
(1.01916997439 -0.0430684218901 0)
(1.01680540019 -0.0377583034861 0)
(1.01473333362 -0.0331079466463 0)
(1.01291739102 -0.0290354682464 0)
(1.01132572491 -0.0254691781278 0)
(1.00993042459 -0.0223462978437 0)
(1.00870711277 -0.0196119210121 0)
(1.00763423074 -0.0172178486723 0)
(1.0066934999 -0.0151223387171 0)
(1.00586704111 -0.0132875970162 0)
(1.00514476093 -0.0116842108798 0)
(1.00450005157 -0.010277164958 0)
(1.43934698211 -0.558591745489 0)
(1.38439174482 -0.489250839744 0)
(1.3369328872 -0.428634562621 0)
(1.29545788019 -0.375532357707 0)
(1.25899277349 -0.328980819015 0)
(1.22697540922 -0.288190516049 0)
(1.19892682948 -0.252461851722 0)
(1.17436846396 -0.221166856954 0)
(1.1528590289 -0.193752971365 0)
(1.13401620191 -0.169738680819 0)
(1.11750998944 -0.148703281807 0)
(1.10305157033 -0.130277911539 0)
(1.09038690638 -0.114139045255 0)
(1.07929304439 -0.100003156803 0)
(1.06957472576 -0.0876218641762 0)
(1.06106099952 -0.0767775605467 0)
(1.05360215406 -0.0672795890563 0)
(1.04706706797 -0.058960912161 0)
(1.0413409123 -0.0516751967366 0)
(1.03632313384 -0.0452942559123 0)
(1.03192568177 -0.0397058052192 0)
(1.02807145112 -0.0348114957397 0)
(1.02469292242 -0.0305251916456 0)
(1.02173096115 -0.0267714579791 0)
(1.01913379313 -0.0234842444503 0)
(1.01685602472 -0.0206057051224 0)
(1.01485803498 -0.0180852475838 0)
(1.0131046777 -0.015878447229 0)
(1.01156649534 -0.0139468585409 0)
(1.01021351762 -0.0122556014445 0)
(1.00903213022 -0.0107777147702 0)
(1.00796917689 -0.00948072397775 0)
(1.59177254212 -0.489566779759 0)
(1.51795615028 -0.428735174368 0)
(1.45399557422 -0.375597545 0)
(1.39814413526 -0.329069947637 0)
(1.3490995467 -0.288285573911 0)
(1.30604321487 -0.252547248836 0)
(1.26831160146 -0.221243907875 0)
(1.23526760854 -0.193825860033 0)
(1.20632280776 -0.169807949402 0)
(1.18096326288 -0.14876764149 0)
(1.15874482469 -0.130336371586 0)
(1.13927951254 -0.114191203253 0)
(1.12222635425 -0.100048874438 0)
(1.10728599885 -0.08766112134 0)
(1.09419616123 -0.076810457982 0)
(1.08272714826 -0.0673063466733 0)
(1.07267776183 -0.0589818374382 0)
(1.06387174259 -0.0516906491907 0)
(1.05615469007 -0.0453046201067 0)
(1.04939136369 -0.039711470637 0)
(1.04346330967 -0.0348128410341 0)
(1.03826677646 -0.0305225710249 0)
(1.03371089233 -0.0267651933174 0)
(1.02971605535 -0.0234746106255 0)
(1.02621256274 -0.0205929447556 0)
(1.02313928635 -0.0180695024356 0)
(1.02044288956 -0.0158599477761 0)
(1.01807598022 -0.013925340882 0)
(1.0159990709 -0.0122320056873 0)
(1.01417118577 -0.0107493357147 0)
(1.01257584182 -0.00945381388455 0)
(1.01113497977 -0.00831684170981 0)
(1.7214139802 -0.401750897996 0)
(1.63156197604 -0.35179247712 0)
(1.55356333379 -0.308177327426 0)
(1.48548826 -0.270003638163 0)
(1.42575487548 -0.23654503367 0)
(1.37331880515 -0.207224974597 0)
(1.32735709893 -0.181543370954 0)
(1.28709945578 -0.15904988565 0)
(1.25183350633 -0.139345859322 0)
(1.2209334326 -0.122084109581 0)
(1.19385789031 -0.10696223005 0)
(1.17013468539 -0.093715437603 0)
(1.14934910356 -0.0821114731403 0)
(1.13113695986 -0.0719467537718 0)
(1.11517905634 -0.063042937909 0)
(1.10119581217 -0.055243785147 0)
(1.08894229991 -0.0484123917903 0)
(1.07820391683 -0.0424287944593 0)
(1.06879264083 -0.0371878808776 0)
(1.06054375427 -0.0325975575424 0)
(1.05331296322 -0.0285771420058 0)
(1.04697386556 -0.0250559534496 0)
(1.04141573706 -0.021972078549 0)
(1.03654157362 -0.0192712874547 0)
(1.03226642792 -0.0169060911981 0)
(1.02851578985 -0.014834893236 0)
(1.02522466085 -0.013021314488 0)
(1.02233522145 -0.0114333975125 0)
(1.01979947848 -0.0100435213029 0)
(1.01756700478 -0.00882654637186 0)
(1.01561910028 -0.00776325174868 0)
(1.01385579288 -0.00683008983887 0)
(1.82328034992 -0.298514115465 0)
(1.72083273211 -0.261372177722 0)
(1.63180162072 -0.228959045697 0)
(1.55412315905 -0.200599012035 0)
(1.48599676407 -0.175743936286 0)
(1.42619605338 -0.153962540528 0)
(1.37377087208 -0.134883960836 0)
(1.32784712759 -0.11817414273 0)
(1.28761591526 -0.10353661222 0)
(1.25236358539 -0.0907131145301 0)
(1.22147232611 -0.0794789500479 0)
(1.19440382214 -0.0696375006725 0)
(1.17068553426 -0.0610163006903 0)
(1.14990242463 -0.0534641639733 0)
(1.1316906333 -0.0468486502145 0)
(1.11573142379 -0.0410537348452 0)
(1.1017455448 -0.0359777506566 0)
(1.08948829372 -0.0315316058838 0)
(1.07874525083 -0.0276372333936 0)
(1.0693285513 -0.0242262311143 0)
(1.06107360731 -0.0212386689793 0)
(1.05383622576 -0.0186220429704 0)
(1.04749008759 -0.0163303593277 0)
(1.04192451736 -0.0143233300415 0)
(1.03704259085 -0.0125656735805 0)
(1.03275928245 -0.0110264845868 0)
(1.02900043184 -0.00967873481929 0)
(1.025700018 -0.00849867779627 0)
(1.02280338015 -0.00746579909605 0)
(1.02025260607 -0.00656140682077 0)
(1.01802739524 -0.00577126384229 0)
(1.01601009831 -0.00507783547031 0)
(1.89345062493 -0.183818689447 0)
(1.78232896556 -0.160938859936 0)
(1.68569717504 -0.140977052281 0)
(1.601403807 -0.123515224676 0)
(1.52749853459 -0.108212400922 0)
(1.46262741407 -0.0948016955488 0)
(1.40575154014 -0.0830550119665 0)
(1.35592569276 -0.0727669188747 0)
(1.31227492902 -0.0637547634214 0)
(1.27402515796 -0.0558593883238 0)
(1.24050583501 -0.04894241824 0)
(1.21113311112 -0.0428828299921 0)
(1.18539467121 -0.0375744691127 0)
(1.1628404934 -0.0329242722663 0)
(1.14307598089 -0.0288507153173 0)
(1.12575544613 -0.0252823804417 0)
(1.11057601186 -0.0221566867318 0)
(1.09727225542 -0.019418792163 0)
(1.08561158337 -0.0170206392034 0)
(1.07539019308 -0.0149201184058 0)
(1.06642952212 -0.0130803343765 0)
(1.05857312515 -0.0114689622251 0)
(1.0516839425 -0.0100576841427 0)
(1.0456418821 -0.00882169440298 0)
(1.04034176987 -0.0077392692372 0)
(1.03569133595 -0.00679137875917 0)
(1.03161010953 -0.00596138071572 0)
(1.02802641541 -0.00523465216332 0)
(1.02488100776 -0.00459856464429 0)
(1.0221107882 -0.00404160310631 0)
(1.01969442503 -0.00355501928506 0)
(1.01750186306 -0.0031280021104 0)
(1.92922413085 -0.0620670888088 0)
(1.81368113343 -0.05434018316 0)
(1.7131741348 -0.0475995655714 0)
(1.62550846515 -0.0417037883027 0)
(1.54865781803 -0.0365371410723 0)
(1.48120257035 -0.0320092742983 0)
(1.42205819341 -0.0280432135968 0)
(1.37024330381 -0.0245696445658 0)
(1.3248494401 -0.0215268803153 0)
(1.28507172191 -0.0188611577967 0)
(1.25021270122 -0.0165257513191 0)
(1.21966531708 -0.0144798052617 0)
(1.19289699318 -0.0126874840747 0)
(1.16943988669 -0.0111173702846 0)
(1.14888373958 -0.0097419419496 0)
(1.13086913076 -0.008537089236 0)
(1.11508114367 -0.00748168547525 0)
(1.10124379674 -0.00655721625616 0)
(1.08911523452 -0.00574745725643 0)
(1.07848353128 -0.00503819196058 0)
(1.06916300162 -0.0044169639162 0)
(1.06099095482 -0.00387285952631 0)
(1.05382485599 -0.00339631789258 0)
(1.04753981258 -0.00297896374514 0)
(1.04202644469 -0.00261346229092 0)
(1.03718878895 -0.00229338818749 0)
(1.03294315753 -0.00201312232066 0)
(1.02921499114 -0.00176772714302 0)
(1.02594270891 -0.00155293928751 0)
(1.02306055899 -0.00136486982618 0)
(1.02054670606 -0.00120056804961 0)
(1.01826469985 -0.0010563814941 0)
(1.92922413085 0.0620670888102 0)
(1.81368113343 0.0543401831616 0)
(1.7131741348 0.0475995655723 0)
(1.62550846515 0.0417037883024 0)
(1.54865781803 0.0365371410708 0)
(1.48120257035 0.0320092742957 0)
(1.42205819341 0.0280432135932 0)
(1.37024330381 0.0245696445616 0)
(1.3248494401 0.0215268803108 0)
(1.28507172191 0.0188611577922 0)
(1.25021270123 0.0165257513147 0)
(1.21966531708 0.0144798052576 0)
(1.19289699318 0.012687484071 0)
(1.16943988669 0.0111173702811 0)
(1.14888373958 0.00974194194564 0)
(1.13086913076 0.0085370892312 0)
(1.11508114368 0.00748168547148 0)
(1.10124379674 0.00655721625358 0)
(1.08911523452 0.00574745725444 0)
(1.07848353128 0.00503819195869 0)
(1.06916300162 0.00441696391438 0)
(1.06099095482 0.00387285952447 0)
(1.05382485599 0.00339631789063 0)
(1.04753981258 0.00297896374308 0)
(1.04202644469 0.0026134622888 0)
(1.03718878895 0.00229338818535 0)
(1.03294315753 0.00201312231853 0)
(1.02921499114 0.00176772714091 0)
(1.02594270891 0.00155293928541 0)
(1.02306055899 0.00136486982411 0)
(1.02054670606 0.00120056804757 0)
(1.01826469985 0.00105638149221 0)
(1.89345062493 0.183818689447 0)
(1.78232896556 0.160938859935 0)
(1.68569717504 0.14097705228 0)
(1.601403807 0.123515224674 0)
(1.52749853459 0.108212400919 0)
(1.46262741407 0.0948016955448 0)
(1.40575154014 0.083055011962 0)
(1.35592569277 0.0727669188699 0)
(1.31227492902 0.0637547634162 0)
(1.27402515796 0.0558593883186 0)
(1.24050583501 0.0489424182348 0)
(1.21113311112 0.042882829987 0)
(1.18539467122 0.0375744691077 0)
(1.1628404934 0.0329242722613 0)
(1.14307598089 0.0288507153129 0)
(1.12575544613 0.0252823804372 0)
(1.11057601186 0.0221566867282 0)
(1.09727225542 0.0194187921603 0)
(1.08561158337 0.0170206392014 0)
(1.07539019308 0.0149201184039 0)
(1.06642952212 0.0130803343746 0)
(1.05857312515 0.0114689622233 0)
(1.0516839425 0.010057684141 0)
(1.0456418821 0.00882169440123 0)
(1.04034176987 0.00773926923548 0)
(1.03569133595 0.00679137875746 0)
(1.03161010953 0.00596138071401 0)
(1.02802641541 0.00523465216161 0)
(1.02488100776 0.00459856464254 0)
(1.0221107882 0.00404160310454 0)
(1.01969442503 0.00355501928318 0)
(1.01750186306 0.00312800210854 0)
(1.82328034992 0.298514115465 0)
(1.72083273211 0.261372177721 0)
(1.63180162072 0.228959045694 0)
(1.55412315905 0.200599012031 0)
(1.48599676407 0.175743936282 0)
(1.42619605338 0.153962540524 0)
(1.37377087208 0.134883960832 0)
(1.32784712759 0.118174142725 0)
(1.28761591526 0.103536612216 0)
(1.25236358539 0.0907131145252 0)
(1.22147232611 0.0794789500429 0)
(1.19440382214 0.0696375006675 0)
(1.17068553427 0.0610163006854 0)
(1.14990242463 0.0534641639685 0)
(1.1316906333 0.0468486502103 0)
(1.11573142379 0.0410537348411 0)
(1.1017455448 0.0359777506533 0)
(1.08948829373 0.0315316058811 0)
(1.07874525083 0.0276372333913 0)
(1.0693285513 0.0242262311121 0)
(1.06107360731 0.0212386689773 0)
(1.05383622576 0.0186220429686 0)
(1.04749008759 0.016330359326 0)
(1.04192451736 0.01432333004 0)
(1.03704259085 0.012565673579 0)
(1.03275928245 0.0110264845854 0)
(1.02900043184 0.00967873481782 0)
(1.025700018 0.00849867779476 0)
(1.02280338015 0.00746579909449 0)
(1.02025260607 0.00656140681915 0)
(1.01802739524 0.00577126384052 0)
(1.01601009831 0.00507783546851 0)
(1.7214139802 0.401750897996 0)
(1.63156197604 0.351792477119 0)
(1.55356333379 0.308177327424 0)
(1.48548825999 0.27000363816 0)
(1.42575487548 0.236545033666 0)
(1.37331880515 0.207224974594 0)
(1.32735709893 0.18154337095 0)
(1.28709945578 0.159049885646 0)
(1.25183350633 0.139345859318 0)
(1.2209334326 0.122084109576 0)
(1.19385789031 0.106962230045 0)
(1.17013468539 0.0937154375984 0)
(1.14934910356 0.0821114731357 0)
(1.13113695986 0.0719467537674 0)
(1.11517905634 0.0630429379051 0)
(1.10119581217 0.0552437851432 0)
(1.08894229991 0.0484123917871 0)
(1.07820391683 0.0424287944565 0)
(1.06879264083 0.037187880875 0)
(1.06054375427 0.0325975575401 0)
(1.05331296322 0.0285771420038 0)
(1.04697386556 0.0250559534479 0)
(1.04141573706 0.0219720785475 0)
(1.03654157362 0.0192712874534 0)
(1.03226642792 0.0169060911968 0)
(1.02851578985 0.0148348932347 0)
(1.02522466085 0.0130213144867 0)
(1.02233522145 0.0114333975112 0)
(1.01979947848 0.0100435213015 0)
(1.01756700478 0.00882654637033 0)
(1.01561910028 0.007763251747 0)
(1.01385579288 0.00683008983715 0)
(1.59177254212 0.489566779759 0)
(1.51795615028 0.428735174368 0)
(1.45399557422 0.375597544999 0)
(1.39814413526 0.329069947635 0)
(1.3490995467 0.288285573908 0)
(1.30604321487 0.252547248833 0)
(1.26831160146 0.221243907872 0)
(1.23526760854 0.193825860029 0)
(1.20632280776 0.169807949398 0)
(1.18096326288 0.148767641485 0)
(1.15874482469 0.130336371582 0)
(1.13927951254 0.114191203249 0)
(1.12222635425 0.100048874434 0)
(1.10728599885 0.0876611213359 0)
(1.09419616123 0.0768104579782 0)
(1.08272714826 0.0673063466696 0)
(1.07267776183 0.058981837435 0)
(1.06387174259 0.0516906491878 0)
(1.05615469007 0.0453046201041 0)
(1.04939136369 0.0397114706348 0)
(1.04346330967 0.0348128410322 0)
(1.03826677646 0.0305225710233 0)
(1.03371089233 0.026765193316 0)
(1.02971605535 0.0234746106243 0)
(1.02621256274 0.0205929447545 0)
(1.02313928635 0.0180695024344 0)
(1.02044288956 0.0158599477749 0)
(1.01807598022 0.0139253408808 0)
(1.0159990709 0.012232005686 0)
(1.01417118577 0.0107493357132 0)
(1.01257584182 0.00945381388296 0)
(1.01113497977 0.00831684170818 0)
(1.43934698211 0.55859174549 0)
(1.38439174482 0.489250839744 0)
(1.3369328872 0.42863456262 0)
(1.29545788019 0.375532357706 0)
(1.25899277349 0.328980819013 0)
(1.22697540922 0.288190516047 0)
(1.19892682948 0.252461851719 0)
(1.17436846395 0.221166856951 0)
(1.1528590289 0.193752971361 0)
(1.13401620191 0.169738680815 0)
(1.11750998944 0.148703281803 0)
(1.10305157032 0.130277911535 0)
(1.09038690638 0.114139045252 0)
(1.07929304439 0.100003156799 0)
(1.06957472576 0.0876218641726 0)
(1.06106099952 0.076777560543 0)
(1.05360215406 0.0672795890531 0)
(1.04706706797 0.0589609121581 0)
(1.0413409123 0.051675196734 0)
(1.03632313384 0.0452942559101 0)
(1.03192568177 0.0397058052175 0)
(1.02807145112 0.0348114957383 0)
(1.02469292242 0.0305251916443 0)
(1.02173096115 0.026771457978 0)
(1.01913379313 0.0234842444492 0)
(1.01685602472 0.0206057051213 0)
(1.01485803498 0.0180852475827 0)
(1.0131046777 0.0158784472278 0)
(1.01156649534 0.0139468585397 0)
(1.01021351761 0.0122556014431 0)
(1.00903213022 0.0107777147686 0)
(1.00796917689 0.00948072397621 0)
(1.27000658448 0.606177060449 0)
(1.23601322149 0.531017133686 0)
(1.20688364798 0.465250537493 0)
(1.18138996033 0.407605076423 0)
(1.15891849224 0.357066974269 0)
(1.13917990376 0.31278503126 0)
(1.12189794486 0.273997222097 0)
(1.10677299064 0.240021821174 0)
(1.09352879831 0.210260507854 0)
(1.08192927611 0.184191261439 0)
(1.07177120484 0.161357203617 0)
(1.06287619315 0.141357542702 0)
(1.05508710186 0.12384078403 0)
(1.04826607833 0.108498910448 0)
(1.042292484 0.0950620790135 0)
(1.03706075314 0.0832938848698 0)
(1.03247847643 0.0729872181863 0)
(1.02846475919 0.0639606467167 0)
(1.02494879553 0.0560552447718 0)
(1.02186861401 0.0491318098856 0)
(1.01916997438 0.0430684218885 0)
(1.01680540019 0.0377583034848 0)
(1.01473333362 0.0331079466452 0)
(1.01291739102 0.0290354682454 0)
(1.01132572491 0.0254691781268 0)
(1.00993042459 0.0223462978427 0)
(1.00870711277 0.0196119210111 0)
(1.00763423074 0.0172178486712 0)
(1.0066934999 0.0151223387159 0)
(1.00586704111 0.0132875970149 0)
(1.00514476092 0.0116842108784 0)
(1.00450005157 0.0102771649566 0)
(1.09027344491 0.63049620632 0)
(1.07853438193 0.552426263133 0)
(1.06885719977 0.48403204516 0)
(1.06034297541 0.424050037468 0)
(1.05274904964 0.371460642648 0)
(1.04606164231 0.325382271574 0)
(1.04021883471 0.285019625277 0)
(1.03511453825 0.249664167735 0)
(1.03064915477 0.218695026699 0)
(1.0267417866 0.191569527205 0)
(1.02332388173 0.167811954269 0)
(1.02033467032 0.147004844328 0)
(1.01772026217 0.128782120414 0)
(1.01543341291 0.112822998927 0)
(1.01343289331 0.0988464492513 0)
(1.0116827073 0.0866062761327 0)
(1.01015140509 0.0758868151618 0)
(1.00881151173 0.0664991641082 0)
(1.00763903102 0.0582778752548 0)
(1.00661300562 0.0510780520509 0)
(1.00571512932 0.0447728033033 0)
(1.00492940782 0.0392510120154 0)
(1.00424186302 0.0344153814956 0)
(1.00364027421 0.0301807212043 0)
(1.00311395327 0.0264724533101 0)
(1.00265354669 0.0232252796085 0)
(1.00225086052 0.0203820916031 0)
(1.0018987346 0.0178927745152 0)
(1.00159079286 0.0157138953613 0)
(1.00132183043 0.0138062193496 0)
(1.00108587222 0.0121389845546 0)
(1.00088318002 0.0106760699007 0)
(0.907071414795 0.630613594508 0)
(0.918018107116 0.552644632593 0)
(0.928172523185 0.484243422671 0)
(0.936993587984 0.424223973602 0)
(0.944596469591 0.371599976031 0)
(0.951234645818 0.325491138135 0)
(0.957066235181 0.285100212145 0)
(0.962186411608 0.249719905363 0)
(0.966676842712 0.21873055954 0)
(0.970614907729 0.191589379168 0)
(0.974069686664 0.167819919438 0)
(0.977100880491 0.147003997176 0)
(0.979760334997 0.128774934834 0)
(0.982093523116 0.112811425912 0)
(0.984140437444 0.0988319838885 0)
(0.9859362241 0.08659003304 0)
(0.987511754564 0.0758696035571 0)
(0.988894148423 0.0664815534876 0)
(0.99010723133 0.0582602499639 0)
(0.991171931855 0.0510606561009 0)
(0.992106628304 0.0447557768398 0)
(0.992927454077 0.0392344206529 0)
(0.993648565948 0.0343992395395 0)
(0.994282382978 0.03016501029 0)
(0.994839787063 0.0264571364018 0)
(0.99533033251 0.0232103144031 0)
(0.995762316419 0.0203674348954 0)
(0.996143222503 0.017878403475 0)
(0.996478838904 0.0156997737228 0)
(0.996776704425 0.0137924020417 0)
(0.997035440473 0.0121253485306 0)
(0.997281296296 0.0106628661632 0)
(0.727458847731 0.606518019245 0)
(0.760643592862 0.531642510235 0)
(0.790256061816 0.465854438332 0)
(0.816113771668 0.408102942186 0)
(0.838653822724 0.357466232465 0)
(0.858381706272 0.313097207473 0)
(0.87567546663 0.274228830057 0)
(0.890831450725 0.240182759644 0)
(0.904110033718 0.210363976457 0)
(0.915744161602 0.18425012026 0)
(0.925938546569 0.161382254309 0)
(0.93487175652 0.141357527993 0)
(0.942699900445 0.12382272105 0)
(0.949559800924 0.108468319037 0)
(0.955571433642 0.0950231776517 0)
(0.960839972704 0.0832498082833 0)
(0.965457604062 0.072940233614 0)
(0.969505129143 0.0639123432413 0)
(0.973053368148 0.056006690345 0)
(0.976164386655 0.0490836797954 0)
(0.978892570553 0.0430211028093 0)
(0.981285570072 0.0377119767302 0)
(0.983385126951 0.0330626536714 0)
(0.985227805917 0.0289911629462 0)
(0.986845617676 0.025425765842 0)
(0.988266627565 0.0223036730449 0)
(0.989515280245 0.0195699790461 0)
(0.990613370788 0.017176548087 0)
(0.991578637469 0.0150816022745 0)
(0.992430928671 0.0132476229599 0)
(0.993173772181 0.0116446792934 0)
(0.993857483443 0.0102388907582 0)
(0.558355288061 0.559118857338 0)
(0.612471326752 0.490192744204 0)
(0.66043640393 0.429541485541 0)
(0.702387052762 0.376283819608 0)
(0.739030961327 0.329585647754 0)
(0.771107918098 0.288665020372 0)
(0.799209394277 0.252816304655 0)
(0.823824559123 0.221416181623 0)
(0.84538312381 0.193916666524 0)
(0.86426538449 0.169835795307 0)
(0.880804772002 0.148749867905 0)