
//  Hi there

/* I am a line comment */

/*--------------------------------*- C++ -*----------------------------------*\
| =========                 |                                                 |
| \\      /  F ield         | foam-extend: Open Source CFD                    |
|  \\    /   O peration     | Version:     4.1                                |
|   \\  /    A nd           | Web:         http://www.foam-extend.org         |
|    \\/     M anipulation  |                                                 |
\*---------------------------------------------------------------------------*/
FoamFile
{
    version     2.0;
    format      ascii;
    class       volVectorField;
    location    "0";
    object      U;
}
// * * * * * * * * * * * * * * * * * * * * * * * * * * * * * * * * * * * * * //

dimensions      [0 1 -1 0 0 0 0];

internalField   uniform (1 /*2*/ 3 3) ; /* internalField uniform ( 1 1 1 );*/ 

/*comment line*/ banana 123; /*hello*/


mu IamAWord;

boundaryField
{
    inlet
    {
        type          zeroGradient ;
        /*type            fixedValue;
        p2 banana;
        value           uniform (0 0 0);*/
    }

    banana
    {
        type            fixedValue;
        p2 banana;
        value           uniform (0 0 0);
    }

    walls
    {
        type            fixedValue;
        value           uniform (0 0 0);
    }
}
// ************************************************************************* //
