/*--------------------------------*- C++ -*----------------------------------*\
| =========                 |                                                 |
| \\      /  F ield         | foam-extend: Open Source CFD                    |
|  \\    /   O peration     | Version:     4.1                                |
|   \\  /    A nd           | Web:         http://www.foam-extend.org         |
|    \\/     M anipulation  |                                                 |
\*---------------------------------------------------------------------------*/
FoamFile
{
    version     2.0;
    format      ascii;
    class       volScalarField;
    location    "51";
    object      p;
}
// * * * * * * * * * * * * * * * * * * * * * * * * * * * * * * * * * * * * * //

dimensions      [0 2 -2 0 0 0 0];

     internalField   nonuniform List<scalar> 
1024
(
0.0605871874482
0.162510386553
0.240829448454
0.301011729184
0.347216681091
0.382664478589
0.409853922717
0.430713197004
0.446721933769
0.45901299214
0.468453699156
0.475708364061
0.481285924897
0.485576367431
0.488878616582
0.49142188241
0.493381983275
0.494893828951
0.496060971925
0.496962918778
0.497660728723
0.498201301711
0.498620663063
0.498946480495
0.499199987871
0.499397467018
0.499551335805
0.4996711016
0.499763579174
0.499834614155
0.499884078855
0.499921588322
0.060141356221
0.162943644895
0.241350378618
0.301396707991
0.347494642163
0.382869489971
0.410004774175
0.430823756079
0.446802806209
0.459071570957
0.468495060993
0.475736171004
0.481302956485
0.485584804382
0.488880210299
0.491418064504
0.493373936652
0.494882534932
0.496047243669
0.496947426976
0.497644022549
0.498183826684
0.49860277654
0.498928465965
0.499182066799
0.499379815444
0.499534086475
0.499654407992
0.499747518023
0.499819757318
0.499870501711
0.499914282101
0.0609867210485
0.163736319729
0.241971678347
0.301832774494
0.347798304721
0.383082602937
0.410152848345
0.430925034159
0.446870858651
0.459115891204
0.468522128018
0.475750505592
0.481307808897
0.485582562199
0.488872660545
0.491406571047
0.493359559011
0.494866107289
0.49602942864
0.496928753642
0.497624914482
0.498164623531
0.498583751467
0.498909841215
0.499164027611
0.499362529551
0.499517717145
0.499639181332
0.499733701456
0.499808096418
0.499861715116
0.499911564955
0.0626025486216
0.164853205236
0.242742296583
0.302371935943
0.348175241937
0.383344431699
0.410332332025
0.431045836086
0.446950164987
0.459165828982
0.468551124524
0.475764470515
0.481310951575
0.485577916501
0.488862436824
0.491392400496
0.493342662116
0.49484740883
0.496009636892
0.496908416132
0.497604458251
0.498144385191
0.498564000648
0.498890800387
0.499145890102
0.499345480164
0.499501953843
0.49962495756
0.499721359127
0.499798171313
0.499854947149
0.499908705368
0.0645756718984
0.166197279809
0.243641114742
0.302995846987
0.348613628602
0.383650148415
0.410542353456
0.431187397385
0.447043089193
0.459224179736
0.468584784913
0.475780446254
0.481314271376
0.485572220949
0.488850380075
0.491375934297
0.493323235871
0.494826109022
0.49598728477
0.496885637348
0.497581733575
0.498122088389
0.498542427828
0.498870193899
0.499126459741
0.499327422718
0.499485476942
0.499610292537
0.499708821314
0.499788032942
0.499847936068
0.499904307577
0.0666020297049
0.167615724358
0.244580601387
0.303635354499
0.349059991979
0.38396103268
0.410754806469
0.431328911878
0.447134133723
0.459279383954
0.468614435909
0.475791858618
0.481312727629
0.485561567047
0.488833427875
0.491354750714
0.493299350637
0.494800661634
0.495961128611
0.496859414715
0.497555930873
0.498097077578
0.498518498501
0.498847578748
0.499105356651
0.499308011502
0.49946794317
0.499594817667
0.499695672164
0.499777289579
0.499840406569
0.499898694009
0.0683917937687
0.168922622991
0.245449862662
0.304211288474
0.349453446216
0.384231671017
0.410936178493
0.431445219996
0.447204146726
0.459316809445
0.46862887951
0.475790104443
0.481299676862
0.485540799639
0.488807562976
0.491325707601
0.493268541013
0.494769127535
0.495929640605
0.496828543057
0.497526098262
0.498068599043
0.498491612331
0.498822470645
0.499082180588
0.499286902879
0.499449042617
0.499578245437
0.499681646576
0.499765750969
0.499832253755
0.49989207956
0.0696977639414
0.169940302984
0.24614022919
0.304650035081
0.349737497425
0.384418930811
0.411054435113
0.431512361295
0.447234860288
0.459322407385
0.468617302879
0.475766855088
0.481268689096
0.485504943439
0.488768930451
0.49128581597
0.493228488473
0.494729707833
0.495891424749
0.496791938421
0.497491392636
0.498035994182
0.49846125015
0.498794453422
0.499056588779
0.499263804124
0.499428515348
0.499560341675
0.499666535089
0.499753263162
0.499823371243
0.499884581053
0.0703545682017
0.1705359657
0.246567562806
0.304897717434
0.349871539012
0.38449109678
0.411085899459
0.431512916848
0.447213212239
0.459286234593
0.468572136993
0.475716377545
0.481215439564
0.485450750736
0.488715109379
0.4912332909
0.493177896255
0.494681478526
0.495845839562
0.496749171118
0.497451540455
0.497999101641
0.498427327927
0.498763492746
0.4990285749
0.499238720789
0.499406367673
0.499541110241
0.49965033846
0.499739848247
0.499813787162
0.499876364555
0.0703053062408
0.170648070811
0.24668988358
0.30493118194
0.349839761079
0.384435366686
0.411021010007
0.43144039284
0.447134854045
0.459205341224
0.46849143772
0.475637495391
0.481139326856
0.485378038487
0.488646216968
0.491168462003
0.493117239361
0.494625008072
0.495793506751
0.496700885135
0.497407184201
0.497958544208
0.498390434979
0.498730134279
0.498998633781
0.49921209276
0.499382982897
0.499520881479
0.499633336217
0.499725758564
0.499803697954
0.499867691542
0.0696098114847
0.170298528842
0.246516674724
0.304762802772
0.349654642466
0.384261193782
0.410867043527
0.431301194839
0.447005645015
0.459084990139
0.468379901035
0.475534430511
0.481044171753
0.485290271095
0.488565394665
0.49109417729
0.493049098214
0.494562631418
0.495736534933
0.496648979679
0.497360028814
0.49791584622
0.498351927454
0.498695577413
0.498967818684
0.499184837565
0.499359152446
0.499500332672
0.499616097265
0.499711480477
0.499793465786
0.499858931108
0.0684327735699
0.169588673544
0.246108054955
0.304438542181
0.34935479284
0.383999047883
0.410647436881
0.431114019082
0.446841056171
0.458938148305
0.46824845324
0.475416466895
0.480937936258
0.485194325673
0.488478612347
0.491015638867
0.492978019369
0.494498330626
0.495678416239
0.496596518739
0.497312761914
0.497873362689
0.498313864996
0.498661618365
0.498937689858
0.499158303546
0.499336032909
0.499480448452
0.499599443657
0.499697702373
0.499783593748
0.499850541576
0.0670141008089
0.168680200644
0.245563999832
0.304029853399
0.348997975912
0.383695076203
0.410397928172
0.430906871781
0.446663724754
0.458783474585
0.468112607276
0.475296599284
0.480831600605
0.485099552874
0.488393880289
0.490939739644
0.492909955291
0.494437260167
0.495623622915
0.496547387395
0.497268760271
0.497834028052
0.498278795264
0.498630465051
0.498910155276
0.499134132739
0.499315028128
0.499462419778
0.49958436546
0.49968524378
0.499774673599
0.499843025781
0.0656269833492
0.167765012296
0.245005687973
0.303620914743
0.348650812618
0.383402850153
0.410160294597
0.430712285898
0.446499648177
0.45864222369
0.467989933382
0.475189456381
0.480737442932
0.485016340518
0.488320043384
0.490874047076
0.492851404888
0.494385017905
0.495576987478
0.49650576377
0.497231639251
0.497800971264
0.498249424801
0.498604455498
0.498887229765
0.499114055067
0.499297614009
0.499447495783
0.499571897886
0.499674954902
0.499767313619
0.499836874774
0.0645309630483
0.167029765375
0.24455259324
0.30329346832
0.348377070959
0.383173830011
0.409974905819
0.430561625433
0.446373721244
0.458534647456
0.467897121719
0.475108890846
0.480667047781
0.484954454242
0.488265389272
0.490825629985
0.492808420903
0.494346802643
0.495542985881
0.496475507898
0.497204731043
0.497777069871
0.498228237714
0.498585731771
0.498870756404
0.499099650807
0.499285137018
0.499436814217
0.499562981729
0.499667604101
0.499762059686
0.499832512541
0.0639278782606
0.166621667893
0.244299776437
0.303112002065
0.348226570886
0.38304829267
0.409873498688
0.43047953101
0.446305422484
0.458476540909
0.467847166553
0.475065669622
0.480629400594
0.484921452759
0.488236320477
0.49079993979
0.492785663427
0.494326610675
0.495525053625
0.496459578381
0.497190586336
0.497764523884
0.498217131123
0.498575928159
0.498862140137
0.499092123614
0.499278621897
0.499431240071
0.499558331151
0.499663772429
0.499759322568
0.499830249525
0.0639278782585
0.166621667891
0.244299776436
0.303112002064
0.348226570885
0.383048292669
0.409873498687
0.43047953101
0.446305422483
0.458476540908
0.467847166552
0.47506566962
0.480629400593
0.484921452757
0.488236320476
0.49079993979
0.492785663426
0.494326610674
0.495525053624
0.49645957838
0.497190586335
0.497764523883
0.498217131123
0.498575928159
0.498862140137
0.499092123614
0.499278621896
0.499431240071
0.499558331151
0.499663772428
0.499759322568
0.499830249525
0.0645309630441
0.167029765372
0.244552593238
0.303293468318
0.348377070958
0.383173830009
0.409974905817
0.430561625431
0.446373721241
0.458534647453
0.467897121715
0.475108890842
0.480667047778
0.484954454239
0.488265389269
0.490825629983
0.492808420899
0.494346802639
0.495542985878
0.496475507895
0.497204731041
0.49777706987
0.498228237713
0.49858573177
0.498870756403
0.499099650807
0.499285137017
0.499436814217
0.499562981729
0.499667604101
0.499762059685
0.499832512541
0.0656269833469
0.167765012294
0.245005687971
0.30362091474
0.348650812614
0.383402850149
0.410160294593
0.430712285893
0.446499648173
0.458642223685
0.467989933376
0.475189456375
0.480737442927
0.485016340513
0.488320043379
0.490874047072
0.492851404882
0.494385017899
0.495576987473
0.496505763766
0.497231639247
0.497800971262
0.498249424799
0.498604455496
0.498887229764
0.499114055066
0.499297614008
0.499447495782
0.499571897885
0.499674954901
0.499767313618
0.499836874774
0.0670141008076
0.168680200642
0.245563999828
0.304029853395
0.348997975907
0.383695076197
0.410397928165
0.430906871774
0.446663724747
0.458783474578
0.468112607268
0.475296599276
0.480831600597
0.485099552867
0.488393880282
0.490939739637
0.492909955283
0.494437260158
0.495623622908
0.496547387389
0.497268760266
0.497834028048
0.49827879526
0.498630465048
0.498910155273
0.499134132737
0.499315028126
0.499462419776
0.499584365459
0.499685243779
0.499774673599
0.499843025781
0.0684327735683
0.169588673542
0.246108054951
0.304438542175
0.349354792833
0.383999047875
0.410647436873
0.431114019073
0.446841056162
0.458938148296
0.468248453231
0.475416466885
0.480937936249
0.485194325664
0.488478612338
0.491015638858
0.492978019359
0.494498330616
0.495678416231
0.496596518733
0.497312761908
0.497873362684
0.498313864991
0.498661618361
0.498937689854
0.499158303543
0.499336032907
0.49948044845
0.499599443656
0.499697702372
0.499783593747
0.499850541576
0.0696098114819
0.170298528837
0.246516674718
0.304762802764
0.349654642457
0.384261193771
0.410867043516
0.431301194828
0.447005645004
0.459084990128
0.468379901024
0.4755344305
0.481044171742
0.485290271084
0.488565394655
0.491094177279
0.493049098203
0.494562631407
0.495736534924
0.496648979671
0.497360028806
0.497915846213
0.498351927448
0.498695577408
0.49896781868
0.499184837562
0.499359152443
0.499500332669
0.499616097263
0.499711480475
0.499793465785
0.499858931107
0.0703053062363
0.170648070805
0.246689883572
0.30493118193
0.349839761067
0.384435366674
0.411021009994
0.431440392828
0.447134854032
0.459205341211
0.468491437708
0.475637495379
0.481139326844
0.485378038475
0.488646216956
0.491168461991
0.493117239349
0.494625008059
0.49579350674
0.496700885126
0.497407184192
0.4979585442
0.498390434972
0.498730134273
0.498998633776
0.499212092756
0.499382982893
0.499520881476
0.499633336215
0.499725758562
0.499803697953
0.499867691541
0.0703545681953
0.170535965692
0.246567562796
0.304897717423
0.349871538999
0.384491096766
0.411085899445
0.431512916834
0.447213212225
0.459286234579
0.468572136979
0.475716377531
0.481215439551
0.485450750723
0.488715109366
0.491233290886
0.493177896241
0.494681478513
0.49584583955
0.496749171107
0.497451540445
0.497999101632
0.498427327919
0.49876349274
0.499028574895
0.499238720785
0.499406367669
0.499541110237
0.499650338457
0.499739848245
0.499813787161
0.499876364554
0.069697763933
0.169940302974
0.246140229178
0.304650035068
0.349737497411
0.384418930796
0.411054435098
0.43151236128
0.447234860273
0.45932240737
0.468617302865
0.475766855073
0.481268689081
0.485504943425
0.488768930437
0.491285815956
0.493228488458
0.494729707818
0.495891424736
0.496791938408
0.497491392625
0.498035994172
0.498461250141
0.498794453414
0.499056588772
0.499263804118
0.499428515344
0.499560341671
0.499666535086
0.49975326316
0.499823371242
0.499884581052
0.0683917937586
0.16892262298
0.245449862649
0.30421128846
0.349453446201
0.384231671001
0.410936178478
0.43144521998
0.44720414671
0.459316809429
0.468628879494
0.475790104427
0.481299676847
0.485540799625
0.488807562961
0.491325707585
0.493268540996
0.494769127519
0.49592964059
0.496828543043
0.49752609825
0.498068599032
0.498491612321
0.498822470636
0.499082180581
0.499286902873
0.499449042612
0.499578245433
0.499681646573
0.499765750967
0.499832253754
0.49989207956
0.0666020296934
0.167615724346
0.244580601374
0.303635354484
0.349059991964
0.383961032664
0.410754806453
0.431328911861
0.447134133706
0.459279383937
0.468614435893
0.475791858602
0.481312727613
0.485561567031
0.488833427859
0.491354750697
0.493299350619
0.494800661618
0.495961128595
0.496859414701
0.497555930859
0.498097077566
0.498518498491
0.498847578739
0.499105356644
0.499308011496
0.499467943165
0.499594817662
0.499695672161
0.499777289576
0.499840406568
0.499898694009
0.064575671886
0.166197279797
0.243641114729
0.302995846972
0.348613628587
0.383650148399
0.410542353439
0.431187397368
0.447043089176
0.459224179719
0.468584784896
0.475780446238
0.48131427136
0.485572220933
0.488850380057
0.491375934279
0.493323235853
0.494826109005
0.495987284753
0.496885637332
0.497581733561
0.498122088376
0.498542427817
0.498870193889
0.499126459733
0.499327422711
0.499485476936
0.499610292533
0.49970882131
0.49978803294
0.499847936067
0.499904307577
0.0626025486088
0.164853205222
0.242742296569
0.302371935928
0.348175241922
0.383344431683
0.410332332009
0.431045836068
0.446950164969
0.459165828964
0.468551124506
0.475764470497
0.481310951558
0.485577916483
0.488862436806
0.491392400477
0.493342662098
0.494847408812
0.496009636875
0.496908416116
0.497604458237
0.498144385178
0.498564000636
0.498890800377
0.499145890093
0.499345480156
0.499501953836
0.499624957555
0.499721359123
0.499798171311
0.499854947148
0.499908705368
0.0609867210356
0.163736319716
0.241971678333
0.301832774479
0.347798304705
0.38308260292
0.410152848328
0.430925034141
0.446870858633
0.459115891185
0.468522128
0.475750505574
0.481307808879
0.485582562181
0.488872660527
0.491406571028
0.493359558991
0.49486610727
0.496029428622
0.496928753626
0.497624914467
0.498164623518
0.498583751455
0.498909841205
0.499164027601
0.499362529543
0.499517717138
0.499639181327
0.499733701451
0.499808096415
0.499861715115
0.499911564955
0.0601413562084
0.162943644882
0.241350378604
0.301396707976
0.347494642147
0.382869489955
0.410004774158
0.430823756061
0.446802806191
0.459071570939
0.468495060974
0.475736170986
0.481302956467
0.485584804364
0.488880210279
0.491418064484
0.493373936633
0.494882534913
0.496047243652
0.496947426959
0.497644022534
0.498183826671
0.498602776528
0.498928465954
0.49918206679
0.499379815436
0.499534086468
0.499654407986
0.499747518018
0.499819757315
0.499870501709
0.4999142821
0.0605871874365
0.16251038654
0.240829448441
0.301011729169
0.347216681075
0.382664478572
0.4098539227
0.430713196986
0.44672193375
0.459012992121
0.468453699138
0.475708364042
0.481285924879
0.485576367412
0.488878616562
0.49142188239
0.493381983255
0.494893828932
0.496060971907
0.496962918762
0.497660728708
0.498201301697
0.49862066305
0.498946480484
0.499199987861
0.499397467009
0.499551335798
0.499671101595
0.49976357917
0.499834614151
0.499884078854
0.499921588321
)
;

boundaryField
{
    left
    {
        type            KovasznayNeumannP;
        Re              5;
        value           nonuniform List<scalar> 
32
(
-0.0060109223087
-0.00645675353588
-0.00561138870834
-0.00399556113522
-0.00202243785848
3.91994804506e-06
0.0017936840119
0.00309965418456
0.00375645844486
0.00370719648394
0.00301170172785
0.00183466381307
0.000415991052098
-0.000971126407696
-0.0020671467086
-0.00267023149623
-0.00267023149839
-0.00206714671276
-0.000971126409957
0.000415991050776
0.00183466381145
0.0030117017251
0.0037071964795
0.00375645843843
0.00309965417613
0.00179368400172
3.91993653895e-06
-0.00202243787085
-0.00399556114803
-0.00561138872125
-0.00645675354842
-0.00601092232035
)
;
    }
    right
    {
        type            KovasznayDirichletP;
        Re              5;
        value           uniform 0.49990073378;
    }
    frontAndBack
    {
        type            empty;
    }
    top
    {
        type            KovasznayNeumannP;
        Re              5;
        value           nonuniform List<scalar> 
32
(
0.0605871874365
0.16251038654
0.240829448441
0.301011729169
0.347216681075
0.382664478572
0.4098539227
0.430713196986
0.44672193375
0.459012992121
0.468453699138
0.475708364042
0.481285924879
0.485576367412
0.488878616562
0.49142188239
0.493381983255
0.494893828932
0.496060971907
0.496962918762
0.497660728708
0.498201301697
0.49862066305
0.498946480484
0.499199987861
0.499397467009
0.499551335798
0.499671101595
0.49976357917
0.499834614151
0.499884078854
0.499921588321
)
;
    }
    bottom
    {
        type            KovasznayNeumannP;
        Re              5;
        value           nonuniform List<scalar> 
32
(
0.0605871874482
0.162510386553
0.240829448454
0.301011729184
0.347216681091
0.382664478589
0.409853922717
0.430713197004
0.446721933769
0.45901299214
0.468453699156
0.475708364061
0.481285924897
0.485576367431
0.488878616582
0.49142188241
0.493381983275
0.494893828951
0.496060971925
0.496962918778
0.497660728723
0.498201301711
0.498620663063
0.498946480495
0.499199987871
0.499397467018
0.499551335805
0.4996711016
0.499763579174
0.499834614155
0.499884078855
0.499921588322
)
;
    }
}


// ************************************************************************* //
